                               Psi4 1.3.2 release

  ==> Input File <==

--------------------------------------------------------------------------
molecule ace {
 -1 1
    O            1.023443601161     0.614548581322     0.564469899478
    O           -1.173650183833    -0.010278368889     0.618584236639
    C           -0.014814961096     0.048029198254     0.114270026536
    C            0.161680346802    -0.651504401274    -1.280535170953
    H            0.156282861032     0.123984236048    -2.067089682362
    H           -0.655893847740    -1.361215265906    -1.486203072465
    H            1.134797468676    -1.167499891957    -1.336115631469

 units angstrom

}

set {
basis 6-311+G(d,p)
scf_type df
}

frequency('PBE-D3BJ')
--------------------------------------------------------------------------

    Molecular point group: c1
  Charge       = -1
  Multiplicity = 1
  Basis Set: 6-311+G(D,P)
    Blend: 6-311+G(D,P)
  Basis Set: (6-311+G(D,P) AUX)
    Blend: HEAVY-AUG-CC-PVTZ-JKFIT
  @DF-RKS Final Energy:  -228.34879618390872
    Total Energy =                       -228.3487961839087177
    Molecular point group: c1
  Basis Set: 6-311+G(D,P)
    Blend: 6-311+G(D,P)
  Basis Set: (6-311+G(D,P) AUX)
    Blend: HEAVY-AUG-CC-PVTZ-JKFIT
  Basis Set: 6-311+G(D,P)
    Blend: 6-311+G(D,P)
  Basis Set: (6-311+G(D,P) AUX)
    Blend: HEAVY-AUG-CC-PVTZ-JKFIT
  @DF-RKS Final Energy:  -228.34879618379517
    Total Energy =                       -228.3487961837951730
  Basis Set: 6-311+G(D,P)
    Blend: 6-311+G(D,P)
  Basis Set: (6-311+G(D,P) AUX)
    Blend: HEAVY-AUG-CC-PVTZ-JKFIT
  Basis Set: 6-311+G(D,P)
    Blend: 6-311+G(D,P)
  @DF-RKS Final Energy:  -228.34879567062004
    Total Energy =                       -228.3487956706200350
  @DF-RKS Final Energy:  -228.34879558900505
    Total Energy =                       -228.3487955890050500
  @DF-RKS Final Energy:  -228.34879597074084
    Total Energy =                       -228.3487959707408379
  @DF-RKS Final Energy:  -228.34879594074607
    Total Energy =                       -228.3487959407460721
  @DF-RKS Final Energy:  -228.34879606712622
    Total Energy =                       -228.3487960671262158
  @DF-RKS Final Energy:  -228.34879595723064
    Total Energy =                       -228.3487959572306352
  @DF-RKS Final Energy:  -228.34879518948048
    Total Energy =                       -228.3487951894804837
  @DF-RKS Final Energy:  -228.34879529311584
    Total Energy =                       -228.3487952931158418
  @DF-RKS Final Energy:  -228.34879599860750
    Total Energy =                       -228.3487959986074998
  @DF-RKS Final Energy:  -228.34879591211737
    Total Energy =                       -228.3487959121173674
  @DF-RKS Final Energy:  -228.34879605071964
    Total Energy =                       -228.3487960507196419
  @DF-RKS Final Energy:  -228.34879599329466
    Total Energy =                       -228.3487959932946580
  @DF-RKS Final Energy:  -228.34879565613903
    Total Energy =                       -228.3487956561390320
  @DF-RKS Final Energy:  -228.34879574970492
    Total Energy =                       -228.3487957497049194
  @DF-RKS Final Energy:  -228.34879568736946
    Total Energy =                       -228.3487956873694600
  @DF-RKS Final Energy:  -228.34879579570190
    Total Energy =                       -228.3487957957019034
  @DF-RKS Final Energy:  -228.34879560188833
    Total Energy =                       -228.3487956018883267
  @DF-RKS Final Energy:  -228.34879592174639
    Total Energy =                       -228.3487959217463867
  @DF-RKS Final Energy:  -228.34879321892902
    Total Energy =                       -228.3487932189290177
  @DF-RKS Final Energy:  -228.34879342865173
    Total Energy =                       -228.3487934286517316
  @DF-RKS Final Energy:  -228.34879409463210
    Total Energy =                       -228.3487940946320975
  @DF-RKS Final Energy:  -228.34879329356656
    Total Energy =                       -228.3487932935665583
  @DF-RKS Final Energy:  -228.34879477862646
    Total Energy =                       -228.3487947786264556
  @DF-RKS Final Energy:  -228.34879458142956
    Total Energy =                       -228.3487945814295585
  @DF-RKS Final Energy:  -228.34879385392296
    Total Energy =                       -228.3487938539229560
  @DF-RKS Final Energy:  -228.34879382633167
    Total Energy =                       -228.3487938263316721
  @DF-RKS Final Energy:  -228.34879300573286
    Total Energy =                       -228.3487930057328583
  @DF-RKS Final Energy:  -228.34879335578003
    Total Energy =                       -228.3487933557800318
  Basis Set: (6-311+G(D,P) AUX)
    Blend: HEAVY-AUG-CC-PVTZ-JKFIT
  Basis Set: 6-311+G(D,P)
    Blend: 6-311+G(D,P)
  Basis Set: (6-311+G(D,P) AUX)
    Blend: HEAVY-AUG-CC-PVTZ-JKFIT
  @DF-RKS Final Energy:  -228.34879308380533
    Total Energy =                       -228.3487930838053330
  Basis Set: 6-311+G(D,P)
    Blend: 6-311+G(D,P)
  Basis Set: (6-311+G(D,P) AUX)
    Blend: HEAVY-AUG-CC-PVTZ-JKFIT
    Molecular point group: c1
  Charge       = -1
  Multiplicity = 1
  Basis Set: 6-311+G(D,P)
    Blend: 6-311+G(D,P)
  Basis Set: (6-311+G(D,P) AUX)
    Blend: HEAVY-AUG-CC-PVTZ-JKFIT

    Orbital Energies [Eh]
    ---------------------

    Doubly Occupied:

       1A    -18.488022     2A    -18.487210     3A     -9.762497
       4A     -9.698942     5A     -0.729590     6A     -0.649655
       7A     -0.461972     8A     -0.248830     9A     -0.201268
      10A     -0.191449    11A     -0.173141    12A     -0.139204
      13A     -0.119961    14A     -0.014393    15A      0.003635
      16A      0.013880

  @DF-RKS Final Energy:  -228.34879316029844

   => Energetics <=

    Nuclear Repulsion Energy =            110.8665371256874153
    One-Electron Energy =                -538.9481984027866019
    Two-Electron Energy =                 228.8198858111470599
    DFT Exchange-Correlation Energy =     -29.0833692743462855
    Empirical Dispersion Energy =          -0.0036484200000000
    VV10 Nonlocal Energy =                  0.0000000000000000
    Total Energy =                       -228.3487931602984418

  Dipole Moment: [D]
     X:     0.3509      Y:    -1.4457      Z:    -2.8048     Total:     3.1749

    Molecular point group: c1

    Geometry (in Angstrom), charge = -1, multiplicity = 1:

       Center              X                  Y                   Z               Mass
    ------------   -----------------  -----------------  -----------------  -----------------
         O            1.023443601161     0.614548581322     0.564469899478    15.994914619570
         O           -1.173650183833    -0.010278368889     0.618584236639    15.994914619570
         C           -0.014814961096     0.048029198254     0.114270026536    12.000000000000
         C            0.161680346802    -0.651504401274    -1.280535170953    12.000000000000
         H            0.156282861032     0.123984236048    -2.067089682362     1.007825032230
         H           -0.654047410697    -1.361015520009    -1.486048312676     1.007825032230
         H            1.132951031633    -1.167699637853    -1.336270391258     1.007825032230

  Basis Set: 6-311+G(D,P)
    Blend: 6-311+G(D,P)
  Basis Set: (6-311+G(D,P) AUX)
    Blend: HEAVY-AUG-CC-PVTZ-JKFIT

  -Total Gradient:
     Atom            X                  Y                   Z
    ------   -----------------  -----------------  -----------------
       1       -0.000016493822    -0.000012881706     0.000011624345
       2        0.000019938384     0.000001295604     0.000006714253
       3       -0.000016940003    -0.000005488900    -0.000076407516
       4        0.000085649433    -0.000716530507    -0.000076302640
       5        0.000009051744    -0.000030913125     0.000039491024
       6        0.000822953700     0.000464443448     0.000122177004
       7       -0.000894674143     0.000267981177    -0.000048669772

  Vibration                       1                   8                   9
  Freq [cm^-1]                 15.4952i            418.3079            576.5181
  Irrep                           A                   A                   A
  Reduced mass [u]              1.0871              2.9665              2.7698
  Force const [mDyne/A]        -0.0002              0.3058              0.5424

  Vibration                       10                  11                  12
  Freq [cm^-1]                 603.1581            832.8576            950.8738
  Irrep                           A                   A                   A
  Reduced mass [u]              4.1127              7.7130              1.4566
  Force const [mDyne/A]         0.8815              3.1522              0.7760

  Vibration                       13                  14                  15
  Freq [cm^-1]                 981.4610           1258.6842           1294.3106
  Irrep                           A                   A                   A
  Reduced mass [u]              1.9470              1.2577             10.5060
  Force const [mDyne/A]         1.1050              1.1740             10.3697

  Vibration                       16                  17                  18
  Freq [cm^-1]                1409.8230           1421.9169           1608.8684
  Irrep                           A                   A                   A
  Reduced mass [u]              1.0660              1.0563             10.1782
  Force const [mDyne/A]         1.2483              1.2583             15.5225

  Vibration                       19                  20                  21
  Freq [cm^-1]                2934.0954           3006.3926           3019.6918
  Irrep                           A                   A                   A
  Reduced mass [u]              1.0313              1.0995              1.1036
  Force const [mDyne/A]         5.2311              5.8552              5.9292

  ==> Thermochemistry Components <==

  Entropy, S
    Electronic S            0.000 [cal/(mol K)]        0.000 [J/(mol K)]       0.00000000 [mEh/K] (multiplicity = 1)
    Translational S        38.146 [cal/(mol K)]      159.602 [J/(mol K)]       0.06078935 [mEh/K] (mol. weight = 59.0133 [u], P = 101325.00 [Pa])
    Rotational S           23.795 [cal/(mol K)]       99.559 [J/(mol K)]       0.03792000 [mEh/K] (symmetry no. = 1)
    Vibrational S           2.332 [cal/(mol K)]        9.758 [J/(mol K)]       0.00371664 [mEh/K]
  Total S                  64.273 [cal/(mol K)]      268.919 [J/(mol K)]       0.10242599 [mEh/K]
  Correction S              0.000 [cal/(mol K)]        0.000 [J/(mol K)]       0.00000000 [mEh/K]

  Constant volume heat capacity, Cv
    Electronic Cv           0.000 [cal/(mol K)]        0.000 [J/(mol K)]       0.00000000 [mEh/K]
    Translational Cv        2.981 [cal/(mol K)]       12.472 [J/(mol K)]       0.00475022 [mEh/K]
    Rotational Cv           2.981 [cal/(mol K)]       12.472 [J/(mol K)]       0.00475022 [mEh/K]
    Vibrational Cv          5.540 [cal/(mol K)]       23.181 [J/(mol K)]       0.00882915 [mEh/K]
  Total Cv                 11.502 [cal/(mol K)]       48.124 [J/(mol K)]       0.01832958 [mEh/K]
  Correction Cv             0.000 [cal/(mol K)]        0.000 [J/(mol K)]       0.00000000 [mEh/K]

  Constant pressure heat capacity, Cp
    Electronic Cp           0.000 [cal/(mol K)]        0.000 [J/(mol K)]       0.00000000 [mEh/K]
    Translational Cp        4.968 [cal/(mol K)]       20.786 [J/(mol K)]       0.00791703 [mEh/K]
    Rotational Cp           2.981 [cal/(mol K)]       12.472 [J/(mol K)]       0.00475022 [mEh/K]
    Vibrational Cp          5.540 [cal/(mol K)]       23.181 [J/(mol K)]       0.00882915 [mEh/K]
  Total Cp                 13.489 [cal/(mol K)]       56.439 [J/(mol K)]       0.02149639 [mEh/K]
  Correction Cp             0.000 [cal/(mol K)]        0.000 [J/(mol K)]       0.00000000 [mEh/K]

  ==> Thermochemistry Energy Analysis <==

  Raw electronic energy, E0
  Total E0, Electronic energy at well bottom at 0 [K]                 -228.34879618 [Eh]

  Zero-point energy, ZPE_vib = Sum_i nu_i / 2
    Electronic ZPE          0.000 [kcal/mol]        0.000 [kJ/mol]       0.00000000 [Eh]
    Translational ZPE       0.000 [kcal/mol]        0.000 [kJ/mol]       0.00000000 [Eh]
    Rotational ZPE          0.000 [kcal/mol]        0.000 [kJ/mol]       0.00000000 [Eh]
    Vibrational ZPE        29.045 [kcal/mol]      121.522 [kJ/mol]       0.04628544 [Eh]       10158.480 [cm^-1]
  Correction ZPE           29.045 [kcal/mol]      121.522 [kJ/mol]       0.04628544 [Eh]       10158.480 [cm^-1]
  Total ZPE, Electronic energy at 0 [K]                               -228.30251074 [Eh]

  Thermal Energy, E (includes ZPE)
    Electronic E            0.000 [kcal/mol]        0.000 [kJ/mol]       0.00000000 [Eh]
    Translational E         0.889 [kcal/mol]        3.718 [kJ/mol]       0.00141628 [Eh]
    Rotational E            0.889 [kcal/mol]        3.718 [kJ/mol]       0.00141628 [Eh]
    Vibrational E          29.558 [kcal/mol]      123.672 [kJ/mol]       0.04710425 [Eh]
  Correction E             31.336 [kcal/mol]      131.109 [kJ/mol]       0.04993680 [Eh]
  Total E, Electronic energy at  298.15 [K]                           -228.29885938 [Eh]

  Enthalpy, H_trans = E_trans + k_B * T
    Electronic H            0.000 [kcal/mol]        0.000 [kJ/mol]       0.00000000 [Eh]
    Translational H         1.481 [kcal/mol]        6.197 [kJ/mol]       0.00236046 [Eh]
    Rotational H            0.889 [kcal/mol]        3.718 [kJ/mol]       0.00141628 [Eh]
    Vibrational H          29.558 [kcal/mol]      123.672 [kJ/mol]       0.04710425 [Eh]
  Correction H             31.928 [kcal/mol]      133.588 [kJ/mol]       0.05088099 [Eh]
  Total H, Enthalpy at  298.15 [K]                                    -228.29791519 [Eh]

  Gibbs free energy, G = H - T * S
    Electronic G            0.000 [kcal/mol]        0.000 [kJ/mol]       0.00000000 [Eh]
    Translational G        -9.892 [kcal/mol]      -41.388 [kJ/mol]      -0.01576388 [Eh]
    Rotational G           -6.206 [kcal/mol]      -25.965 [kJ/mol]      -0.00988957 [Eh]
    Vibrational G          28.863 [kcal/mol]      120.763 [kJ/mol]       0.04599613 [Eh]
  Correction G             12.765 [kcal/mol]       53.410 [kJ/mol]       0.02034268 [Eh]
  Total G, Free enthalpy at  298.15 [K]                               -228.32845350 [Eh]

*** Psi4 exiting successfully. Buy a developer a beer!
